LAMMPS data file generated by OpenBabel
17100 atoms
15715 bonds
27294 angles
24748 dihedrals
0 impropers
7 atom types
10 bond types
18 angle types
30 dihedral types
0 improper types
  -0.54000   50.59900 xlo xhi
  -0.54000   50.59900 ylo yhi
  -0.54000   50.59900 zlo zhi



Masses

1 12.0107 # C
2 18.9984 # F
3 1.00794 # H
4 6.941 # Li
5 14.0067 # N
6 15.9994 # O
7 32.065 # S


Atoms

1       1    1    0.00000    3.12600   34.48600   10.22900 #   C
2       1    6   -0.82000    2.13600   34.88800   10.28700 #   O
3       1    3    0.41000    3.35100   33.96000   11.13400 #   H
4       1    3    0.41000    3.82700   35.28300   10.09600 #   H
5       1    3    0.41000    3.19000   33.81200    9.40000 #   H
6       1    1    0.00000    2.07800   35.49800   11.03900 #   C
7       1    1    0.00000    1.08800   35.90000   11.09700 #   C
8       1    3    0.41000    2.77900   36.29600   10.90500 #   H
9       1    3    0.41000    2.30300   34.97400   11.94400 #   H
10      1    3    0.41000    0.86300   36.42500   10.19200 #   H
11      1    1    0.00000    1.02400   36.57300   11.92500 #   C
12      1    3    0.41000    0.38700   35.10300   11.23100 #   H
13      1    3    0.41000    1.72600   37.37100   11.79200 #   H
14      1    3    0.41000    1.25000   36.04900   12.83100 #   H
15      1    3    0.41000    0.03400   36.97500   11.98300 #   H
16      2    1    0.00000    5.02600    4.89400   42.69200 #   C
17      2    6   -0.82000    5.04200    4.26300   43.55600 #   O
18      2    3    0.41000    5.90300    5.50700   42.68100 #   H
19      2    3    0.41000    4.15500    5.51600   42.72100 #   H
20      2    3    0.41000    5.00200    4.28900   41.80900 #   H
21      2    1    0.00000    5.06400    4.81200   44.35600 #   C
22      2    1    0.00000    5.08000    4.18100   45.22100 #   C
23      2    3    0.41000    4.19300    5.43300   44.38500 #   H
24      2    3    0.41000    5.94000    5.42500   44.34600 #   H
25      2    3    0.41000    4.20300    3.56800   45.23100 #   H
26      2    1    0.00000    5.10400    4.78500   46.10300 #   C
27      2    3    0.41000    5.95000    3.55900   45.19200 #   H
28      2    3    0.41000    4.23300    5.40800   46.13200 #   H
29      2    3    0.41000    5.98000    5.39900   46.09200 #   H
30      2    3    0.41000    5.12000    4.15500   46.96700 #   H
31      3    1    0.00000   19.29900   43.91300   11.20400 #   C
32      3    6   -0.82000   20.35700   43.79500   11.30900 #   O
33      3    3    0.41000   18.80300   43.04200   11.57800 #   H
34      3    3    0.41000   19.05500   44.04600   10.17000 #   H
35      3    3    0.41000   18.97900   44.77100   11.75900 #   H
36      3    1    0.00000   20.64600   43.01700   10.80600 #   C
37      3    1    0.00000   21.70500   42.89800   10.91100 #   C
38      3    3    0.41000   20.40400   43.15100    9.77200 #   H
39      3    3    0.41000   20.15200   42.14500   11.17900 #   H
40      3    3    0.41000   22.20100   43.77100   10.53700 #   H
41      3    1    0.00000   22.02400   42.04200   10.35600 #   C
42      3    3    0.41000   21.94800   42.76500   11.94400 #   H
43      3    3    0.41000   21.78100   42.17500    9.32200 #   H
44      3    3    0.41000   21.52900   41.16900   10.72900 #   H
45      3    3    0.41000   23.08300   41.92300   10.46100 #   H
46      4    1    0.00000   26.02100   39.22200   26.28300 #   C
47      4    6   -0.82000   25.47800   38.41700   26.73100 #   O
48      4    3    0.41000   26.84400   38.83000   25.72300 #   H
49      4    3    0.41000   26.38900   39.87400   27.04800 #   H
50      4    3    0.41000   25.37400   39.76900   25.62900 #   H
51      4    1    0.00000   26.06500   37.92100   27.32300 #   C
52      4    1    0.00000   25.52200   37.11500   27.77200 #   C
53      4    3    0.41000   26.43100   38.57300   28.08900 #   H
54      4    3    0.41000   26.88800   37.52800   26.76500 #   H
55      4    3    0.41000   24.69800   37.50900   28.33100 #   H
56      4    1    0.00000   26.16800   36.56900   28.42500 #   C
57      4    3    0.41000   25.15400   36.46400   27.00700 #   H
58      4    3    0.41000   26.53500   37.22100   29.19100 #   H
59      4    3    0.41000   26.99200   36.17600   27.86600 #   H
60      4    3    0.41000   25.62500   35.76400   28.87400 #   H
61      5    1    0.00000   26.28500   49.28900    9.96800 #   C
62      5    6   -0.82000   26.71000   48.30900   10.03400 #   O
63      5    3    0.41000   26.96300   50.00200   10.38800 #   H
64      5    3    0.41000   25.36100   49.31400   10.50800 #   H
65      5    3    0.41000   26.10400   49.53100    8.94100 #   H
66      5    1    0.00000   26.87400   48.09100   10.96500 #   C
67      5    1    0.00000   27.30000   47.11100   11.03100 #   C
68      5    3    0.41000   25.95000   48.11500   11.50400 #   H
69      5    3    0.41000   27.55200   48.80300   11.38500 #   H
70      5    3    0.41000   26.62100   46.39800   10.61000 #   H
71      5    1    0.00000   27.48000   46.86900   12.05700 #   C
72      5    3    0.41000   28.22300   47.08600   10.49100 #   H
73      5    3    0.41000   26.55600   46.89400   12.59700 #   H
74      5    3    0.41000   28.15800   47.58200   12.47800 #   H
75      5    3    0.41000   27.90500   45.88900   12.12300 #   H
76      6    1    0.00000    6.97200   28.20400   19.30700 #   C
77      6    6   -0.82000    6.29900   27.37300   19.34700 #   O
78      6    3    0.41000    7.89500   27.89300   18.86200 #   H
79      6    3    0.41000    7.15600   28.56200   20.29800 #   H
80      6    3    0.41000    6.53900   28.98600   18.71900 #   H
81      6    1    0.00000    6.69200   26.66400   19.87900 #   C
82      6    1    0.00000    6.01800   25.83300   19.92000 #   C
83      6    3    0.41000    6.87500   27.02200   20.87100 #   H
84      6    3    0.41000    7.61400   26.35300   19.43600 #   H
85      6    3    0.41000    5.09500   26.14400   20.36400 #   H
86      6    1    0.00000    6.45100   25.05100   20.50700 #   C
87      6    3    0.41000    5.83400   25.47500   18.92900 #   H
88      6    3    0.41000    6.63500   25.41000   21.49900 #   H
89      6    3    0.41000    7.37400   24.74100   20.06400 #   H
90      6    3    0.41000    5.77700   24.22100   20.54800 #   H
91      7    1    0.00000    8.50100   40.85700   43.03700 #   C
92      7    6   -0.82000    8.93100   41.61900   43.65200 #   O
93      7    3    0.41000    7.82100   41.30100   42.34100 #   H
94      7    3    0.41000    7.97500   40.15600   43.65200 #   H
95      7    3    0.41000    9.27700   40.35000   42.50200 #   H
96      7    1    0.00000    8.22700   42.07900   44.13600 #   C
97      7    1    0.00000    8.65800   42.84100   44.75100 #   C
98      7    3    0.41000    7.70300   41.37800   44.75200 #   H
99      7    3    0.41000    7.54700   42.52400   43.44100 #   H
100     7    3    0.41000    9.33900   42.39600   45.44700 #   H
101     7    1    0.00000    7.88300   43.34800   45.28600 #   C
102     7    3    0.41000    9.18300   43.54200   44.13700 #   H
103     7    3    0.41000    7.35700   42.64700   45.90100 #   H
104     7    3    0.41000    7.20100   43.79300   44.59100 #   H
105     7    3    0.41000    8.31300   44.11000   45.90200 #   H
106     8    1    0.00000   15.17400   13.35100   41.46300 #   C
107     8    6   -0.82000   14.30400   13.93000   41.23500 #   O
108     8    3    0.41000   16.00900   14.00300   41.61100 #   H
109     8    3    0.41000   15.38200   12.68500   40.65000 #   H
110     8    3    0.41000   15.00200   12.78300   42.35300 #   H
111     8    1    0.00000   14.46100   14.44500   40.42800 #   C
112     8    1    0.00000   13.59100   15.02500   40.20000 #   C
113     8    3    0.41000   14.66700   13.77900   39.61600 #   H
114     8    3    0.41000   15.29500   15.09800   40.57500 #   H
115     8    3    0.41000   12.75500   14.37200   40.05200 #   H
116     8    1    0.00000   13.76200   15.59200   39.31000 #   C
117     8    3    0.41000   13.38300   15.69000   41.01200 #   H
118     8    3    0.41000   13.96900   14.92600   38.49800 #   H
119     8    3    0.41000   14.59700   16.24400   39.45700 #   H
120     8    3    0.41000   12.89200   16.17100   39.08300 #   H
121     9    1    0.00000   48.94000   45.69200    7.17900 #   C
122     9    6   -0.82000   48.51100   46.65000    6.97100 #   O
123     9    3    0.41000   48.55900   45.32400    8.10900 #   H
124     9    3    0.41000   50.00500   45.78500    7.24200 #   H
125     9    3    0.41000   48.68700   45.01000    6.39500 #   H
126     9    1    0.00000   48.74000   47.26800    7.68300 #   C
127     9    1    0.00000   48.31100   48.22600    7.47500 #   C
128     9    3    0.41000   49.80500   47.36100    7.74400 #   H
129     9    3    0.41000   48.35900   46.90200    8.61200 #   H
130     9    3    0.41000   48.69300   48.59400    6.54400 #   H
131     9    1    0.00000   48.56400   48.90900    8.25800 #   C
132     9    3    0.41000   47.24700   48.13400    7.41200 #   H
133     9    3    0.41000   49.62900   49.00100    8.32100 #   H
134     9    3    0.41000   48.18300   48.54100    9.18900 #   H
135     9    3    0.41000   48.13500   49.86600    8.05000 #   H
136    10    1    0.00000   17.07800   37.08300   16.51200 #   C
137    10    6   -0.82000   16.03500   36.94900   16.31800 #   O
138    10    3    0.41000   17.22000   37.94900   17.12400 #   H
139    10    3    0.41000   17.59900   37.21200   15.58500 #   H
140    10    3    0.41000   17.46100   36.22100   17.01800 #   H
141    10    1    0.00000   15.68800   37.73000   15.85900 #   C
142    10    1    0.00000   14.64500   37.59700   15.66600 #   C
143    10    3    0.41000   16.20800   37.85900   14.93300 #   H
144    10    3    0.41000   15.82900   38.59600   16.47100 #   H
145    10    3    0.41000   14.50300   36.73000   15.05300 #   H
146    10    1    0.00000   14.26200   38.45700   15.15900 #   C
147    10    3    0.41000   14.12400   37.46700   16.59100 #   H
148    10    3    0.41000   14.78300   38.58700   14.23300 #   H
149    10    3    0.41000   14.40300   39.32400   15.77100 #   H
150    10    3    0.41000   13.21800   38.32300   14.96500 #   H
151    11    1    0.00000   41.74700   10.42800   43.77300 #   C
152    11    6   -0.82000   41.77700    9.39400   43.49900 #   O
153    11    3    0.41000   40.75100   10.80100   43.65500 #   H
154    11    3    0.41000   42.41200   10.98300   43.14400 #   H
155    11    3    0.41000   42.05000   10.53500   44.79400 #   H
156    11    1    0.00000   41.50200    9.29800   42.57300 #   C
157    11    1    0.00000   41.53100    8.26400   42.29900 #   C
158    11    3    0.41000   42.16800    9.85100   41.94400 #   H
159    11    3    0.41000   40.50600    9.66900   42.45500 #   H
160    11    3    0.41000   42.52800    7.89100   42.41700 #   H
161    11    1    0.00000   41.22900    8.15600   41.27900 #   C
162    11    3    0.41000   40.86700    7.70900   42.92700 #   H
163    11    3    0.41000   41.89400    8.71100   40.65000 #   H
164    11    3    0.41000   40.23300    8.52900   41.16000 #   H
165    11    3    0.41000   41.25800    7.12200   41.00400 #   H
166    12    1    0.00000   19.60100   36.67100   46.79700 #   C
167    12    6   -0.82000   20.47800   37.15200   47.17600 #   O
168    12    3    0.41000   18.77900   36.85300   47.45800 #   H
169    12    3    0.41000   19.77400   35.61800   46.72500 #   H
170    12    3    0.41000   19.37100   37.06200   45.82700 #   H
171    12    1    0.00000   20.68600   36.79800   48.05600 #   C
172    12    1    0.00000   21.56300   37.27900   48.43500 #   C
173    12    3    0.41000   20.86000   35.74500   47.98300 #   H
174    12    3    0.41000   19.86500   36.98000   48.71700 #   H
175    12    3    0.41000   22.38500   37.09700   47.77300 #   H
176    12    1    0.00000   21.79300   36.88800   49.40400 #   C
177    12    3    0.41000   21.39000   38.33200   48.50700 #   H
178    12    3    0.41000   21.96600   35.83400   49.33200 #   H
179    12    3    0.41000   20.97100   37.06900   50.06600 #   H
180    12    3    0.41000   22.67000   37.36900   49.78400 #   H
181    13    1    0.00000   35.87900    3.71200   21.68600 #   C
182    13    6   -0.82000   35.38400    3.99200   22.59200 #   O
183    13    3    0.41000   35.84100    2.64900   21.57100 #   H
184    13    3    0.41000   36.90000    4.03000   21.72500 #   H
185    13    3    0.41000   35.39200    4.17800   20.85400 #   H
186    13    1    0.00000   35.82500    3.56900   23.34500 #   C
187    13    1    0.00000   35.33000    3.84800   24.25200 #   C
188    13    3    0.41000   36.84600    3.88800   23.38400 #   H
189    13    3    0.41000   35.78700    2.50600   23.23200 #   H
190    13    3    0.41000   35.36800    4.91200   24.36600 #   H
191    13    1    0.00000   35.81700    3.38300   25.08200 #   C
192    13    3    0.41000   34.30900    3.53000   24.21300 #   H
193    13    3    0.41000   36.83800    3.70100   25.12100 #   H
194    13    3    0.41000   35.78000    2.31900   24.96900 #   H
195    13    3    0.41000   35.32100    3.66300   25.98900 #   H
196    14    1    0.00000   34.26600   35.14500   11.06100 #   C
197    14    6   -0.82000   33.58600   35.08600   10.23700 #   O
198    14    3    0.41000   33.84500   35.76400   11.82700 #   H
199    14    3    0.41000   35.19200   35.56700   10.73100 #   H
200    14    3    0.41000   34.43900   34.16400   11.45200 #   H
201    14    1    0.00000   33.42900   35.97500    9.88400 #   C
202    14    1    0.00000   32.74900   35.91600    9.05900 #   C
203    14    3    0.41000   34.35500   36.39600    9.55200 #   H
204    14    3    0.41000   33.00800   36.59400   10.64800 #   H
205    14    3    0.41000   33.17000   35.29700    8.29400 #   H
206    14    1    0.00000   32.57600   36.89600    8.66800 #   C
207    14    3    0.41000   31.82300   35.49500    9.38900 #   H
208    14    3    0.41000   33.50200   37.31800    8.33800 #   H
209    14    3    0.41000   32.15500   37.51600    9.43300 #   H
210    14    3    0.41000   31.89600   36.83700    7.84400 #   H
211    15    1    0.00000   38.61400   40.19300   39.65200 #   C
212    15    6   -0.82000   38.96500   41.19100   39.81700 #   O
213    15    3    0.41000   37.69100   40.22400   39.11200 #   H
214    15    3    0.41000   38.46000   39.70900   40.59500 #   H
215    15    3    0.41000   39.34100   39.64800   39.08700 #   H
216    15    1    0.00000   38.30600   41.68400   40.32900 #   C
217    15    1    0.00000   38.65600   42.68200   40.49400 #   C
218    15    3    0.41000   38.15300   41.20100   41.27200 #   H
219    15    3    0.41000   37.38300   41.71600   39.79000 #   H
220    15    3    0.41000   39.58000   42.65100   41.03500 #   H
221    15    1    0.00000   37.93100   43.22700   41.06000 #   C
222    15    3    0.41000   38.81100   43.16600   39.55300 #   H
223    15    3    0.41000   37.77600   42.74300   42.00200 #   H
224    15    3    0.41000   37.00700   43.25700   40.52000 #   H
225    15    3    0.41000   38.28100   44.22400   41.22400 #   H
226    16    1    0.00000   20.21300    3.44200   12.93300 #   C
227    16    6   -0.82000   20.64000    4.31700   12.48900 #   O
228    16    3    0.41000   20.20300    3.55100   13.99800 #   H
229    16    3    0.41000   20.79800    2.58600   12.66800 #   H
230    16    3    0.41000   19.21200    3.31400   12.57800 #   H
231    16    1    0.00000   21.54700    4.43400   12.81100 #   C
232    16    1    0.00000   21.97400    5.30900   12.36700 #   C
233    16    3    0.41000   22.13200    3.57800   12.54500 #   H
234    16    3    0.41000   21.53800    4.54300   13.87500 #   H
235    16    3    0.41000   21.98400    5.20000   11.30200 #   H
236    16    1    0.00000   22.97500    5.43700   12.72100 #   C
237    16    3    0.41000   21.38900    6.16500   12.63200 #   H
238    16    3    0.41000   23.56000    4.58100   12.45600 #   H
239    16    3    0.41000   22.96500    5.54600   13.78600 #   H
240    16    3    0.41000   23.40100    6.31200   12.27700 #   H
241    17    1    0.00000   32.29600    9.01100   49.30100 #   C
242    17    6   -0.82000   33.33000    9.08500   49.03600 #   O
243    17    3    0.41000   32.11200    8.06100   49.76000 #   H
244    17    3    0.41000   31.69400    9.10400   48.42100 #   H
245    17    3    0.41000   32.04700    9.79200   49.98900 #   H
246    17    1    0.00000   33.55500    8.37500   48.41400 #   C
247    17    1    0.00000   34.58900    8.44900   48.14900 #   C
248    17    3    0.41000   32.95400    8.47000   47.53300 #   H
249    17    3    0.41000   33.37200    7.42600   48.87100 #   H
250    17    3    0.41000   34.77300    9.39900   47.69000 #   H
251    17    1    0.00000   34.83800    7.66800   47.46200 #   C
252    17    3    0.41000   35.19100    8.35600   49.02800 #   H
253    17    3    0.41000   34.23600    7.76200   46.58100 #   H
254    17    3    0.41000   34.65400    6.71800   47.91900 #   H
255    17    3    0.41000   35.87200    7.74200   47.19700 #   H
256    18    1    0.00000   43.45300   41.11800   35.07100 #   C
257    18    6   -0.82000   43.12300   40.45800   35.84500 #   O
258    18    3    0.41000   43.00000   42.07900   35.20300 #   H
259    18    3    0.41000   43.17200   40.72000   34.11800 #   H
260    18    3    0.41000   44.51800   41.21700   35.11500 #   H
261    18    1    0.00000   42.15700   40.37000   35.80400 #   C
262    18    1    0.00000   41.82700   39.71000   36.57900 #   C
263    18    3    0.41000   41.87700   39.97000   34.85200 #   H
264    18    3    0.41000   41.70400   41.32900   35.93700 #   H
265    18    3    0.41000   42.28100   38.74900   36.44700 #   H
266    18    1    0.00000   40.76300   39.61100   36.53400 #   C
267    18    3    0.41000   42.10800   40.10800   37.53100 #   H
268    18    3    0.41000   40.48200   39.21200   35.58100 #   H
269    18    3    0.41000   40.30900   40.57100   36.66600 #   H
270    18    3    0.41000   40.43300   38.95100   37.30900 #   H
271    19    1    0.00000   46.09900   35.90000   40.02000 #   C
272    19    6   -0.82000   46.48500   34.96900   40.37900 #   O
273    19    3    0.41000   45.69600   36.45900   40.83900 #   H
274    19    3    0.41000   45.32800   35.71400   39.30200 #   H
275    19    3    0.41000   46.88700   36.46000   39.56000 #   H
276    19    1    0.00000   45.77100   34.46200   40.79600 #   C
277    19    1    0.00000   46.15700   33.53100   41.15500 #   C
278    19    3    0.41000   45.00000   34.27500   40.07800 #   H
279    19    3    0.41000   45.36700   35.02000   41.61500 #   H
280    19    3    0.41000   46.56000   32.97200   40.33600 #   H
281    19    1    0.00000   45.37000   32.97200   41.61400 #   C
282    19    3    0.41000   46.92700   33.71700   41.87300 #   H
283    19    3    0.41000   44.59800   32.78500   40.89600 #   H
284    19    3    0.41000   44.96500   33.53000   42.43300 #   H
285    19    3    0.41000   45.75600   32.04100   41.97300 #   H
286    20    1    0.00000   13.46100   49.03100    0.73700 #   C
287    20    6   -0.82000   13.06600   48.23400    1.33200 #   O
288    20    3    0.41000   12.65900   49.54700    0.25300 #   H
289    20    3    0.41000   14.12500   48.62900   -0.00100 #   H
290    20    3    0.41000   13.99700   49.71300    1.36500 #   H
291    20    1    0.00000   12.58000   47.61600    0.76300 #   C
292    20    1    0.00000   12.18400   46.82000    1.35800 #   C
293    20    3    0.41000   13.24400   47.21400    0.02600 #   H
294    20    3    0.41000   11.77800   48.13100    0.27900 #   H
295    20    3    0.41000   12.98800   46.30400    1.84300 #   H
296    20    1    0.00000   11.65000   46.13800    0.73100 #   C
297    20    3    0.41000   11.52200   47.22000    2.09600 #   H
298    20    3    0.41000   12.31300   45.73700   -0.00700 #   H
299    20    3    0.41000   10.84700   46.65300    0.24600 #   H
300    20    3    0.41000   11.25400   45.34100    1.32600 #   H
301    21    1    0.00000   10.81400   45.18400   49.21500 #   C
302    21    6   -0.82000    9.95600   44.69300   49.62600 #   O
303    21    3    0.41000   10.50600   46.07200   48.70300 #   H
304    21    3    0.41000   11.30500   44.52700   48.52700 #   H
305    21    3    0.41000   11.48900   45.44400   50.00400 #   H
306    21    1    0.00000    9.34400   44.45900   48.91100 #   C
307    21    1    0.00000    8.48700   43.96800   49.32200 #   C
308    21    3    0.41000    9.83500   43.80100   48.22400 #   H
309    21    3    0.41000    9.03600   45.34500   48.39900 #   H
310    21    3    0.41000    8.79500   43.08000   49.83500 #   H
311    21    1    0.00000    7.81200   43.70800   48.53400 #   C
312    21    3    0.41000    7.99600   44.62400   50.00900 #   H
313    21    3    0.41000    8.30300   43.05200   47.84600 #   H
314    21    3    0.41000    7.50400   44.59600   48.02000 #   H
315    21    3    0.41000    6.95500   43.21800   48.94500 #   H
316    22    1    0.00000    5.08300   30.48800    9.76500 #   C
317    22    6   -0.82000    4.73300   30.03900    8.85900 #   O
318    22    3    0.41000    4.32100   31.12300   10.16600 #   H
319    22    3    0.41000    5.96000   31.06700    9.56000 #   H
320    22    3    0.41000    5.31900   29.72200   10.47400 #   H
321    22    1    0.00000    4.51800   30.73300    8.21600 #   C
322    22    1    0.00000    4.16800   30.28400    7.31000 #   C
323    22    3    0.41000    5.39500   31.31100    8.01100 #   H
324    22    3    0.41000    3.75700   31.36800    8.61600 #   H
325    22    3    0.41000    4.93000   29.64800    6.90900 #   H
326    22    1    0.00000    3.93200   31.04900    6.60100 #   C
327    22    3    0.41000    3.29200   29.70500    7.51500 #   H
328    22    3    0.41000    4.80900   31.62800    6.39600 #   H
329    22    3    0.41000    3.17100   31.68500    7.00200 #   H
330    22    3    0.41000    3.58200   30.60000    5.69500 #   H
331    23    1    0.00000   46.71000    0.70200   23.35900 #   C
332    23    6   -0.82000   46.88800    1.69300   23.72300 #   O
333    23    3    0.41000   47.05800    0.62600   22.35000 #   H
334    23    3    0.41000   45.66100    0.49300   23.39200 #   H
335    23    3    0.41000   47.23500   -0.00200   23.97100 #   H
336    23    1    0.00000   46.41300    2.33100   23.16800 #   C
337    23    1    0.00000   46.59100    3.32100   23.53200 #   C
338    23    3    0.41000   45.36400    2.12200   23.20300 #   H
339    23    3    0.41000   46.75900    2.25500   22.15900 #   H
340    23    3    0.41000   46.24400    3.39800   24.54300 #   H
341    23    1    0.00000   46.06700    4.02600   22.92200 #   C
342    23    3    0.41000   47.63900    3.53100   23.49900 #   H
343    23    3    0.41000   45.01700    3.81600   22.95500 #   H
344    23    3    0.41000   46.41300    3.94900   21.91200 #   H
345    23    3    0.41000   46.24400    5.01600   23.28600 #   H
346    24    1    0.00000   34.08900    2.16600   38.62200 #   C
347    24    6   -0.82000   33.34800    1.64500   38.05300 #   O
348    24    3    0.41000   34.37800    3.05600   38.10200 #   H
349    24    3    0.41000   34.94400    1.53700   38.75500 #   H
350    24    3    0.41000   33.68600    2.42700   39.57800 #   H
351    24    1    0.00000   33.71300    1.41000   37.18500 #   C
352    24    1    0.00000   32.97200    0.88900   36.61600 #   C
353    24    3    0.41000   34.56800    0.78000   37.31900 #   H
354    24    3    0.41000   34.00200    2.29800   36.66500 #   H
355    24    3    0.41000   32.68300   -0.00200   37.13600 #   H
356    24    1    0.00000   33.37400    0.62700   35.66000 #   C
357    24    3    0.41000   32.11700    1.51700   36.48300 #   H
358    24    3    0.41000   34.23000   -0.00200   35.79300 #   H
359    24    3    0.41000   33.66400    1.51700   35.14000 #   H
360    24    3    0.41000   32.63300    0.10600   35.09100 #   H
361    25    1    0.00000   14.70600   16.05100    8.89300 #   C
362    25    6   -0.82000   13.89200   16.50700    9.41600 #   O
363    25    3    0.41000   15.62400   16.27100    9.39700 #   H
364    25    3    0.41000   14.74700   16.43300    7.89400 #   H
365    25    3    0.41000   14.56200   14.99000    8.86300 #   H
366    25    1    0.00000   14.02300   17.46700    9.44400 #   C
367    25    1    0.00000   13.20900   17.92300    9.96700 #   C
368    25    3    0.41000   14.06300   17.85000    8.44500 #   H
369    25    3    0.41000   14.94000   17.68900    9.94800 #   H
370    25    3    0.41000   12.29100   17.70200    9.46200 #   H
371    25    1    0.00000   13.35300   18.98300    9.99700 #   C
372    25    3    0.41000   13.16800   17.54100   10.96500 #   H
373    25    3    0.41000   13.39400   19.36500    8.99800 #   H
374    25    3    0.41000   14.27000   19.20500   10.50100 #   H
375    25    3    0.41000   12.53800   19.43900   10.52100 #   H
376    26    1    0.00000   12.43100   27.25500    4.00500 #   C
377    26    6   -0.82000   11.39300   27.38500    3.77800 #   O
378    26    3    0.41000   12.55900   26.36800    4.59000 #   H
379    26    3    0.41000   12.78400   28.10100    4.55700 #   H
380    26    3    0.41000   12.98700   27.16500    3.09500 #   H
381    26    1    0.00000   10.89000   27.46600    4.60300 #   C
382    26    1    0.00000    9.85200   27.59700    4.37600 #   C
383    26    3    0.41000   11.24300   28.31300    5.15400 #   H
384    26    3    0.41000   11.01700   26.58000    5.18800 #   H
385    26    3    0.41000    9.72400   28.48400    3.79000 #   H
386    26    1    0.00000    9.29600   27.68700    5.28500 #   C
387    26    3    0.41000    9.49800   26.75200    3.82400 #   H
388    26    3    0.41000    9.65000   28.53300    5.83700 #   H
389    26    3    0.41000    9.42500   26.80000    5.87200 #   H
390    26    3    0.41000    8.25900   27.81700    5.05800 #   H
391    27    1    0.00000   29.84000   43.88600   19.01100 #   C
392    27    6   -0.82000   30.49600   44.57600   19.50000 #   O
393    27    3    0.41000   28.82600   44.19600   19.15200 #   H
394    27    3    0.41000   29.97600   42.90900   19.42600 #   H
395    27    3    0.41000   30.06300   43.86200   17.96400 #   H
396    27    1    0.00000   30.29300   44.59700   20.44800 #   C
397    27    1    0.00000   30.94900   45.28700   20.93700 #   C
398    27    3    0.41000   30.43000   43.62000   20.86400 #   H
399    27    3    0.41000   29.28000   44.90700   20.59100 #   H
400    27    3    0.41000   31.96400   44.97600   20.79500 #   H
401    27    1    0.00000   30.72700   45.31000   21.98300 #   C
402    27    3    0.41000   30.81300   46.26300   20.52200 #   H
403    27    3    0.41000   30.86200   44.33300   22.39900 #   H
404    27    3    0.41000   29.71200   45.61900   22.12600 #   H
405    27    3    0.41000   31.38200   46.00000   22.47200 #   H
406    28    1    0.00000   27.15400    6.53100    7.32400 #   C
407    28    6   -0.82000   27.94100    6.68200    6.61500 #   O
408    28    3    0.41000   27.40900    7.00900    8.24700 #   H
409    28    3    0.41000   27.01900    5.48200    7.49000 #   H
410    28    3    0.41000   26.24600    6.95200    6.94400 #   H
411    28    1    0.00000   28.76400    6.30000    6.96000 #   C
412    28    1    0.00000   29.55100    6.45100    6.25100 #   C
413    28    3    0.41000   28.62900    5.25200    7.12500 #   H
414    28    3    0.41000   29.02000    6.77700    7.88300 #   H
415    28    3    0.41000   29.29600    5.97300    5.32700 #   H
416    28    1    0.00000   30.45800    6.03000    6.63100 #   C
417    28    3    0.41000   29.68700    7.49900    6.08500 #   H
418    28    3    0.41000   30.32300    4.98100    6.79700 #   H
419    28    3    0.41000   30.71400    6.50600    7.55500 #   H
420    28    3    0.41000   31.24500    6.18000    5.92200 #   H
421    29    1    0.00000   39.00200   34.62900   43.39100 #   C
422    29    6   -0.82000   38.22100   34.60500   44.12200 #   O
423    29    3    0.41000   39.38500   35.62500   43.30900 #   H
424    29    3    0.41000   38.61400   34.31600   42.44400 #   H
425    29    3    0.41000   39.79000   33.96900   43.68900 #   H
426    29    1    0.00000   37.50800   35.20500   43.85100 #   C
427    29    1    0.00000   36.72700   35.18100   44.58200 #   C
428    29    3    0.41000   37.11900   34.89100   42.90500 #   H
429    29    3    0.41000   37.88900   36.20100   43.76900 #   H
430    29    3    0.41000   36.34500   34.18400   44.66500 #   H
431    29    1    0.00000   35.93900   35.84100   44.28500 #   C
432    29    3    0.41000   37.11400   35.49400   45.52900 #   H
433    29    3    0.41000   35.55100   35.52800   43.33700 #   H
434    29    3    0.41000   36.32100   36.83700   44.20100 #   H
435    29    3    0.41000   35.15800   35.81700   45.01600 #   H
436    30    1    0.00000   17.32600   30.93200   11.19300 #   C
437    30    6   -0.82000   17.67700   29.93900   11.38800 #   O
438    30    3    0.41000   17.75000   31.60700   11.90700 #   H
439    30    3    0.41000   16.25900   30.95500   11.27100 #   H
440    30    3    0.41000   17.61800   31.22600   10.20700 #   H
441    30    1    0.00000   17.41200   29.67300   12.28300 #   C
442    30    1    0.00000   17.76200   28.68100   12.47700 #   C
443    30    3    0.41000   16.34500   29.69500   12.35900 #   H
444    30    3    0.41000   17.83500   30.34700   12.99700 #   H
445    30    3    0.41000   17.33800   28.00600   11.76300 #   H
446    30    1    0.00000   17.47000   28.38600   13.46300 #   C
447    30    3    0.41000   18.82900   28.65800   12.40000 #   H
448    30    3    0.41000   16.40200   28.40900   13.54000 #   H
449    30    3    0.41000   17.89300   29.06100   14.17800 #   H
450    30    3    0.41000   17.82000   27.39400   13.65800 #   H
451    31    1    0.00000   44.50600    7.98900   25.42500 #   C
452    31    6   -0.82000   44.95200    7.01600   25.42000 #   O
453    31    3    0.41000   44.52500    8.38600   26.41900 #   H
454    31    3    0.41000   43.49200    7.91800   25.08900 #   H
455    31    3    0.41000   45.05400    8.63600   24.77200 #   H