LAMMPS data file generated by OpenBabel
14400 atoms
13234 bonds
23070 angles
20961 dihedrals
0 impropers
7 atom types
10 bond types
18 angle types
22 dihedral types
0 improper types
  -0.60000   50.54100 xlo xhi  ## The min and max values on x axis
  -0.60000   50.54100 ylo yhi  ## The min and max values on y axis
  -0.60000   50.54100 zlo zhi  ## The min and max values on z axis



Masses
## Atom No, Atom Mass
1 12.0107 # C  
2 18.9984 # F
3 1.00794 # H
4 6.941 # Li
5 14.0067 # N
6 15.9994 # O
7 32.065 # S


Atoms
## Atom Index No, Molecule Index No, Atomic Charges, Atom No (e.g. 1 is C, 6 is 0), X-Y-Z axis
1       1    1    0.00000   21.88900   43.66300   48.49300 #   C
2       1    6   -0.82000   22.87300   43.88100   48.85100 #   O
3       1    3    0.41000   21.56100   42.72700   48.89700 #   H
4       1    3    0.41000   21.90300   43.60400   47.42500 #   H
5       1    3    0.41000   21.21800   44.43800   48.79900 #   H
6       1    1    0.00000   23.48100   43.17700   48.57400 #   C
7       1    1    0.00000   24.46600   43.39500   48.93200 #   C
8       1    3    0.41000   23.49600   43.12000   47.50600 #   H
9       1    3    0.41000   23.15500   42.24200   48.97800 #   H
10      1    3    0.41000   24.79300   44.33100   48.52800 #   H
11      1    1    0.00000   25.13700   42.62100   48.62600 #   C
12      1    3    0.41000   24.45200   43.45400   50.00000 #   H
13      1    3    0.41000   25.15000   42.56300   47.55700 #   H
14      1    3    0.41000   24.80900   41.68500   49.02900 #   H
15      1    3    0.41000   26.12100   42.83900   48.98400 #   H
16      2    1    0.00000    9.02000   12.09300   45.71500 #   C
17      2    6   -0.82000    8.49600   12.84000   45.15600 #   O
18      2    3    0.41000    9.64600   12.56600   46.44400 #   H
19      2    3    0.41000    9.62400   11.50900   45.05200 #   H
20      2    3    0.41000    8.31600   11.45700   46.20900 #   H
21      2    1    0.00000    9.13500   13.41700   44.70900 #   C
22      2    1    0.00000    8.61100   14.16400   44.15000 #   C
23      2    3    0.41000    9.73800   12.83300   44.04500 #   H
24      2    3    0.41000    9.76100   13.89000   45.43600 #   H
25      2    3    0.41000    7.98500   13.69000   43.42100 #   H
26      2    1    0.00000    9.31500   14.79900   43.65600 #   C
27      2    3    0.41000    8.00800   14.74700   44.81200 #   H
28      2    3    0.41000    9.91900   14.21500   42.99200 #   H
29      2    3    0.41000    9.94200   15.27200   44.38300 #   H
30      2    3    0.41000    8.79100   15.54600   43.09700 #   H


Bonds
##Bond Index, Bond Type, Atom Index no of first atom, and second atom that makes the bond
1       5    2    1 #  O: C
2       2    1    3 #  C: H
3       2    1    4 #  C: H
4       2    1    5 #  C: H
5       5    2    6 #  O: C
6       1    6    7 #  C: C
7       2    6    8 #  C: H
8       2    6    9 #  C: H
9       2    7   10 #  C: H
10      1    7   11 #  C: C

Angles
#Angle Index No, Atom Index no of first, second and third atoms that makes the angle
1      10    2    1    3 #  O: C: H
2      10    2    1    4 #  O: C: H
3      10    2    1    5 #  O: C: H
4       6    4    1    3 #  H: C: H
5       6    5    1    3 #  H: C: H
6       6    5    1    4 #  H: C: H
7       3    6    2    1 #  C: O: C
8       9    2    6    7 #  O: C: C
9      10    2    6    8 #  O: C: H
10     10    2    6    9 #  O: C: H

Dihedrals
#Dihedral Index No, Atom Index no of first, second, third and fourth atoms that makes the dihedral
1       2    6    1    2    3 #  C: C: O: H
2       2    6    1    2    4 #  C: C: O: H
3       2    6    1    2    5 #  C: C: O: H
4       4    7    2    6    1 #  C: O: C: C
5       5    1    2    6    8 #  C: O: C: H
6       5    1    2    6    9 #  C: O: C: H
7      15    2    6    7   10 #  O: C: C: H
8      14    2    6    7   11 #  O: C: C: C
9      15    2    6    7   12 #  O: C: C: H
